
     Program PWSCF v.5.0.2 (svn rev. 9392) starts on  5Sep2013 at 19:12: 2 

     This program is part of the open-source Quantum ESPRESSO suite
     for quantum simulation of materials; please cite
         "P. Giannozzi et al., J. Phys.:Condens. Matter 21 395502 (2009);
          URL http://www.quantum-espresso.org", 
     in publications or presentations arising from this work. More details at
     http://www.quantum-espresso.org/quote.php

     Serial version

     Current dimensions of program PWSCF are:
     Max number of different atomic species (ntypx) = 10
     Max number of k-points (npk) =  40000
     Max angular momentum in pseudopotentials (lmaxx) =  3
     Waiting for input...
     Reading input from standard input

     G-vector sticks info
     --------------------
     sticks:   dense  smooth     PW     G-vecs:    dense   smooth      PW
     Sum         241      91     37                 2445      609     137



     bravais-lattice index     =            0
     lattice parameter (alat)  =       1.8897  a.u.
     unit-cell volume          =     112.0317 (a.u.)^3
     number of atoms/cell      =            1
     number of atomic types    =            1
     number of electrons       =         3.00
     number of Kohn-Sham states=            8
     kinetic-energy cutoff     =      12.0000  Ry
     charge density cutoff     =     120.0000  Ry
     convergence threshold     =      7.3E-09
     mixing beta               =       0.7000
     number of iterations used =            8  plain     mixing
     Exchange-correlation      = LDA ( 1 1 0 0 0)
     EXX-fraction              =        0.00

     celldm(1)=   1.889726  celldm(2)=   0.000000  celldm(3)=   0.000000
     celldm(4)=   0.000000  celldm(5)=   0.000000  celldm(6)=   0.000000

     crystal axes: (cart. coord. in units of alat)
               a(1) = (   0.000000   2.024750   2.024750 )  
               a(2) = (   2.024750   0.000000   2.024750 )  
               a(3) = (   2.024750   2.024750   0.000000 )  

     reciprocal axes: (cart. coord. in units 2 pi/alat)
               b(1) = ( -0.246944  0.246944  0.246944 )  
               b(2) = (  0.246944 -0.246944  0.246944 )  
               b(3) = (  0.246944  0.246944 -0.246944 )  


     PseudoPot. # 1 for Al read from file:
     ./Al.pz-n-rrkjus_psl.0.1.UPF
     MD5 check sum: d65347cb939431d5400bc8497a8acd39
     Pseudo is Ultrasoft + core correction, Zval =  3.0
     Generated using "atomic" code by A. Dal Corso  v.5.0.2 svn rev. 9415
     Using radial grid of 1135 points,  4 beta functions with: 
                l(1) =   0
                l(2) =   0
                l(3) =   1
                l(4) =   1
     Q(r) pseudized with 0 coefficients 


     atomic species   valence    mass     pseudopotential
        Al1            3.00    26.98154     Al( 1.00)

     48 Sym. Ops., with inversion, found



   Cartesian axes

     site n.     atom                  positions (alat units)
         1           Al1 tau(   1) = (   0.0000000   0.0000000   0.0000000  )

     number of k points=     4  Fermi-Dirac smearing, width (Ry)=  0.0800
                       cart. coord. in units 2pi/alat
        k(    1) = (   0.0000000   0.0000000   0.0000000), wk =   0.0740741
        k(    2) = (   0.0823147   0.0823147  -0.0823147), wk =   0.5925926
        k(    3) = (   0.1646294   0.0000000   0.0000000), wk =   0.4444444
        k(    4) = (  -0.0000000  -0.1646294   0.1646294), wk =   0.8888889

     Dense  grid:     2445 G-vectors     FFT dimensions: (  20,  20,  20)

     Smooth grid:      609 G-vectors     FFT dimensions: (  12,  12,  12)

     Largest allocated arrays     est. size (Mb)     dimensions
        Kohn-Sham Wavefunctions         0.01 Mb     (     81,    8)
        NL pseudopotentials             0.01 Mb     (     81,    8)
        Each V/rho on FFT grid          0.12 Mb     (   8000)
        Each G-vector array             0.02 Mb     (   2445)
        G-vector shells                 0.00 Mb     (     61)
     Largest temporary arrays     est. size (Mb)     dimensions
        Auxiliary wavefunctions         0.04 Mb     (     81,   32)
        Each subspace H/S matrix        0.02 Mb     (  32,  32)
        Each <psi_i|beta_j> matrix      0.00 Mb     (      8,    8)
        Arrays for rho mixing           0.98 Mb     (   8000,   8)

     Check: negative/imaginary core charge=   -0.000006    0.000000

     Initial potential from superposition of free atoms

     starting charge    2.99797, renormalised to    3.00000
     Starting wfc are    4 randomized atomic wfcs

     total cpu time spent up to now is        0.4 secs

     per-process dynamical memory:     2.4 Mb

     Self-consistent Calculation

     iteration #  1     ecut=    12.00 Ry     beta=0.70
     Davidson diagonalization with overlap
     ethr =  1.00E-02,  avg # of iterations =  4.5

     Threshold (ethr) on eigenvalues was too large:
     Diagonalizing with lowered threshold

     Davidson diagonalization with overlap
     ethr =  1.68E-04,  avg # of iterations =  4.3

     total cpu time spent up to now is        0.4 secs

     total energy              =      -5.53139314 Ry
     Harris-Foulkes estimate   =      -5.53304091 Ry
     estimated scf accuracy    <       0.00491331 Ry

     iteration #  2     ecut=    12.00 Ry     beta=0.70
     Davidson diagonalization with overlap
     ethr =  1.64E-04,  avg # of iterations =  1.0

     total cpu time spent up to now is        0.4 secs

     total energy              =      -5.53135620 Ry
     Harris-Foulkes estimate   =      -5.53146596 Ry
     estimated scf accuracy    <       0.00032262 Ry

     iteration #  3     ecut=    12.00 Ry     beta=0.70
     Davidson diagonalization with overlap
     ethr =  1.08E-05,  avg # of iterations =  1.8

     total cpu time spent up to now is        0.5 secs

     total energy              =      -5.53137571 Ry
     Harris-Foulkes estimate   =      -5.53137589 Ry
     estimated scf accuracy    <       0.00000085 Ry

     iteration #  4     ecut=    12.00 Ry     beta=0.70
     Davidson diagonalization with overlap
     ethr =  2.84E-08,  avg # of iterations =  2.5

     total cpu time spent up to now is        0.5 secs

     End of self-consistent calculation

          k = 0.0000 0.0000 0.0000 (    65 PWs)   bands (ev):

    -3.4255  20.5782  20.5782  20.5782  21.4095  21.4095  21.4095  24.2324

          k = 0.0823 0.0823-0.0823 (    74 PWs)   bands (ev):

    -0.4591   8.1522  18.3634  18.3634  21.0597  21.0597  22.0074  24.9693

          k = 0.1646 0.0000 0.0000 (    80 PWs)   bands (ev):

     0.5152  12.0284  13.9978  13.9978  14.1301  17.4681  30.8617  32.1096

          k =-0.0000-0.1646 0.1646 (    81 PWs)   bands (ev):

     4.3604   6.5976   8.0075  14.8716  16.7846  26.3248  27.9128  28.1416

     the Fermi energy is     7.2520 ev

!    total energy              =      -5.53137645 Ry
     Harris-Foulkes estimate   =      -5.53137645 Ry
     estimated scf accuracy    <          2.6E-09 Ry

     The total energy is the sum of the following terms:

     one-electron contribution =       3.03051518 Ry
     hartree contribution      =       0.00563846 Ry
     xc contribution           =      -3.03207423 Ry
     ewald contribution        =      -5.39223137 Ry
     smearing contrib. (-TS)   =      -0.14322450 Ry

     convergence has been achieved in   4 iterations

     Writing output data file Al.save

     init_run     :      0.22s CPU      0.22s WALL (       1 calls)
     electrons    :      0.09s CPU      0.09s WALL (       1 calls)

     Called by init_run:
     wfcinit      :      0.00s CPU      0.00s WALL (       1 calls)
     potinit      :      0.01s CPU      0.01s WALL (       1 calls)

     Called by electrons:
     c_bands      :      0.04s CPU      0.04s WALL (       5 calls)
     sum_band     :      0.03s CPU      0.03s WALL (       5 calls)
     v_of_rho     :      0.01s CPU      0.01s WALL (       5 calls)
     newd         :      0.02s CPU      0.02s WALL (       5 calls)
     mix_rho      :      0.00s CPU      0.00s WALL (       5 calls)

     Called by c_bands:
     init_us_2    :      0.00s CPU      0.00s WALL (      44 calls)
     cegterg      :      0.04s CPU      0.04s WALL (      20 calls)

     Called by *egterg:
     h_psi        :      0.02s CPU      0.02s WALL (      80 calls)
     s_psi        :      0.00s CPU      0.00s WALL (      80 calls)
     g_psi        :      0.00s CPU      0.00s WALL (      56 calls)
     cdiaghg      :      0.01s CPU      0.01s WALL (      72 calls)

     Called by h_psi:
     add_vuspsi   :      0.00s CPU      0.00s WALL (      80 calls)

     General routines
     calbec       :      0.00s CPU      0.00s WALL (     100 calls)
     fft          :      0.01s CPU      0.01s WALL (      45 calls)
     ffts         :      0.00s CPU      0.00s WALL (      10 calls)
     fftw         :      0.01s CPU      0.01s WALL (    1058 calls)
     interpolate  :      0.00s CPU      0.00s WALL (      10 calls)
     davcio       :      0.00s CPU      0.00s WALL (      64 calls)


     PWSCF        :     0.54s CPU         0.55s WALL


   This run was terminated on:  19:12: 2   5Sep2013            

=------------------------------------------------------------------------------=
   JOB DONE.
=------------------------------------------------------------------------------=
